User input:
--------------------------------------------------------------
$rem
SCF_ALGORITHM                 rca_diis
EXCHANGE                      hf
SCF_CONVERGENCE               5
JOBTYPE                       sp
BASIS                         gen
$end

$molecule
0 1
C    -3.54006763    2.82474243    0.00000120
C    -2.37910984    1.82952504    -0.00000385
H    -3.97395812    2.93913923    -1.00744205
H    -3.21519618    3.82424113    0.33432388
H    -4.35085406    2.49943817    0.67310301
H    -1.56832364    2.15482904    -0.67310597
H    -2.70398151    0.83002615    -0.33432561
H    -1.94521902    1.71512882    1.00743939
$end

$basis
H
6-31G
****
C
6-31G
****
$end

--------------------------------------------------------------

       Standard Nuclear Orientation (Angstroms)
    I     Atom         X            Y            Z
 ----------------------------------------------------
    1      C      -0.764572    -0.000012    -0.000005
    2      C       0.764572     0.000012     0.000005
    3      H      -1.168445     0.579471    -0.846985
    4      H      -1.168443     0.443809     0.925318
    5      H      -1.168404    -1.023267    -0.078317
    6      H       1.168404     1.023267     0.078317
    7      H       1.168443    -0.443809    -0.925318
    8      H       1.168445    -0.579471     0.846985
 ----------------------------------------------------

   11     -79.1962473605      4.89E-08  00000 Convergence criterion met
 Total energy in the final basis set = -79.1962473605

             Orbital Energies (a.u.) and Symmetries
 --------------------------------------------------------------

 Alpha MOs, Restricted
 -- Occupied --
-11.218 -11.218  -1.018  -0.841  -0.593  -0.593  -0.509  -0.480
  1 Ag    1 Au    2 Ag    2 Au    3 Au    4 Au    3 Ag    4 Ag
 -0.480
  5 Ag

 Beta MOs, Restricted
 -- Occupied --
-11.218 -11.218  -1.018  -0.841  -0.593  -0.593  -0.509  -0.480
  1 Ag    1 Au    2 Ag    2 Au    3 Au    4 Au    3 Ag    4 Ag
 -0.480
  5 Ag

          Ground-State Mulliken Net Atomic Charges

     Atom                 Charge (a.u.)
  ----------------------------------------
      1 C                    -0.451343
      2 C                    -0.451343
      3 H                     0.150448
      4 H                     0.150445
      5 H                     0.150451
      6 H                     0.150451
      7 H                     0.150445
      8 H                     0.150448
  ----------------------------------------
  Sum of atomic charges =    -0.000000

                    Cartesian Multipole Moments
 -----------------------------------------------------------------
    Charge (ESU x 10^10)
                -0.0000
    Dipole Moment (Debye)
         X      -0.0000      Y       0.0000      Z       0.0000
       Tot       0.0000
    Quadrupole Moments (Debye-Ang)
        XX     -15.6078     XY      -0.0001     YY     -15.1498
        XZ       0.0000     YZ      -0.0000     ZZ     -15.1502
    Octapole Moments (Debye-Ang^2)
       XXX       0.0000    XXY       0.0000    XYY      -0.0000
       YYY       0.0000    XXZ       0.0000    XYZ       0.0000
       YYZ       0.0000    XZZ      -0.0000    YZZ       0.0000
       ZZZ       0.0000
    Hexadecapole Moments (Debye-Ang^3)
      XXXX     -94.8123   XXXY      -0.0002   XXYY     -19.7750
      XYYY       1.1961   YYYY     -29.6219   XXXZ       0.0001
      XXYZ      -0.0001   XYYZ       0.2790   YYYZ      -0.0001
      XXZZ     -19.7754   XYZZ      -1.1960   YYZZ      -9.8740

 Total job time:  0.22s(wall), 0.30s(cpu)
        *  Thank you very much for using Q-Chem.  Have a nice day.  *
