User input:
--------------------------------------------------------------
$rem
FORCE_FIELD                   read
EXCHANGE                      hf
BASIS                         cc-pvDZ
USER_CONNECT                  true
QM_MM_INTERFACE               mm
QMMM_PRINT                    true
GEOM_PRINT                    true
JOBTYPE                       opt
$end

$force_field_params
Filename /Users/hauser/Desktop/butadiene/mm/first.prm
$end

$molecule
0 1
C    -1.687850   -0.157250    0.397780    27     2     5     6   0
C    -0.696370    0.396810   -0.279640    26     7     3     1   0
C     0.730090    0.389890    0.154890    26     4     2     8   0
C     1.661260   -0.404510   -0.345860    27     9    10     3   0
H    -2.708180   -0.112480    0.037110     1     1     0     0   0
H    -1.517940   -0.678510    1.333080     1     1     0     0   0
H    -0.916230    0.911900   -1.210930     1     2     0     0   0
H     1.005000    1.105740    0.924920     1     3     0     0   0
H     1.435510   -1.131650   -1.117660     1     4     0     0   0
H     2.685630   -0.358310    0.002980     1     4     0     0   0
$end

$comment
butadiene TS full MM
$end
--------------------------------------------------------------

       Standard Nuclear Orientation (Angstroms)
    I     Atom         X            Y            Z
 ----------------------------------------------------
    1      C      -1.867808     0.142146     0.627912
    2      C      -0.690428     0.047287    -0.344755
    3      C       0.694403     0.070790     0.307336
    4      C       1.864297    -0.190935    -0.643512
    5      H      -2.828101     0.084835     0.072433
    6      H      -1.837367    -0.697599     1.355613
    7      H      -0.763140     0.846001    -1.115389
    8      H       0.845684     1.031110     0.847709
    9      H       1.751671    -1.183805    -1.130476
   10      H       2.821709    -0.188199    -0.080200
 ----------------------------------------------------

 Final energy is  -5.00650120731337654E-003
 **  OPTIMIZATION CONVERGED  **
 Total job time:  0.16s(wall), 0.13s(cpu)
        *  Thank you very much for using Q-Chem.  Have a nice day.  *
