User input:
--------------------------------------------------------------
$rem
BASIS                         gen
EXCHANGE                      hf
SCF_ALGORITHM                 rca_diis
SCF_CONVERGENCE               5
JOBTYPE                       sp
$end

$molecule
1 2
C    -3.54006763    2.82474243    0.00000120
C    -2.37910984    1.82952504    -0.00000385
H    -3.97395812    2.93913923    -1.00744205
H    -3.21519618    3.82424113    0.33432388
H    -4.35085406    2.49943817    0.67310301
H    -1.56832364    2.15482904    -0.67310597
H    -2.70398151    0.83002615    -0.33432561
H    -1.94521902    1.71512882    1.00743939
$end

$basis
H
6-31G
****
C
6-31G
****
$end

$comment
ethane cation
$end

--------------------------------------------------------------

       Standard Nuclear Orientation (Angstroms)
    I     Atom         X            Y            Z
 ----------------------------------------------------
    1      C      -0.764572    -0.000012    -0.000005
    2      C       0.764572     0.000012     0.000005
    3      H      -1.168445     0.579471    -0.846985
    4      H      -1.168443     0.443809     0.925318
    5      H      -1.168404    -1.023267    -0.078317
    6      H       1.168404     1.023267     0.078317
    7      H       1.168443    -0.443809    -0.925318
    8      H       1.168445    -0.579471     0.846985
 ----------------------------------------------------

   10     -78.7503693163      2.03E-06  00000 Convergence criterion met
 Total energy in the final basis set = -78.7503693163

             Orbital Energies (a.u.) and Symmetries
 --------------------------------------------------------------

 Alpha MOs, Unrestricted
 -- Occupied --
-11.559 -11.559  -1.381  -1.165  -0.911  -0.911  -0.880  -0.786
  1 Ag    1 Au    2 Ag    2 Au    3 Au    4 Au    3 Ag    4 Ag
 -0.786
  5 Ag

 Beta MOs, Unrestricted
 -- Occupied --
-11.547 -11.547  -1.283  -1.094  -0.892  -0.892  -0.770  -0.770
  1 Ag    1 Au    2 Ag    2 Au    3 Au    4 Au    3 Ag    4 Ag

          Ground-State Mulliken Net Atomic Charges

     Atom                 Charge (a.u.)    Spin (a.u.)
  --------------------------------------------------------
      1 C                    -0.467485       0.496172
      2 C                    -0.467485       0.496172
      3 H                     0.322487       0.001256
      4 H                     0.322494       0.001273
      5 H                     0.322504       0.001299
      6 H                     0.322504       0.001299
      7 H                     0.322494       0.001273
      8 H                     0.322487       0.001256
  --------------------------------------------------------
  Sum of atomic charges =     1.000000

                    Cartesian Multipole Moments
 -----------------------------------------------------------------
    Charge (ESU x 10^10)
                 4.8032
    Dipole Moment (Debye)
         X      -0.0000      Y       0.0000      Z       0.0000
       Tot       0.0000
    Quadrupole Moments (Debye-Ang)
        XX      -6.2166     XY       0.0002     YY     -11.4391
        XZ      -0.0002     YZ       0.0000     ZZ     -11.4397
    Octapole Moments (Debye-Ang^2)
       XXX      -0.0000    XXY       0.0000    XYY      -0.0000
       YYY       0.0000    XXZ       0.0000    XYZ       0.0000
       YYZ       0.0000    XZZ      -0.0000    YZZ       0.0000
       ZZZ       0.0000
    Hexadecapole Moments (Debye-Ang^3)
      XXXX     -62.7509   XXXY       0.0004   XXYY     -12.3205
      XYYY       2.8123   YYYY     -21.4528   XXXZ      -0.0004
      XXYZ       0.0000   XYYZ       0.6559   YYYZ      -0.0000
      XXZZ     -12.3211   XYZZ      -2.8120   YYZZ      -7.1510

 Total job time:  0.21s(wall), 0.16s(cpu)
        *  Thank you very much for using Q-Chem.  Have a nice day.  *
